300
Lattice="20.0 0.0 0.0 0.0 20.0 0.0 0.0 0.0 20.0" Properties=species:S:1:pos:R:3:initial_charges:R:1 "real energy"=-48.16131134836991 "recip energy"=0.5403143677408228 "self energy"=-245.13633436978432 pbc="T T T"
O        4.83171852       1.64006695       1.65469466      -0.84760000
H        4.10464158       1.01223410       1.93251661       0.42380000
H        5.20153442       1.35183429       0.77142905       0.42380000
O        8.14887108       4.62209690       1.33453738      -0.84760000
H        8.76553956       5.32550287       0.98106883       0.42380000
H        7.93085966       3.97309776       0.60565389       0.42380000
O        5.59783382       8.41646721       0.76251154      -0.84760000
H        5.89730789       9.37055269       0.75649656       0.42380000
H        5.92672045       7.96912403       1.59420720       0.42380000
O        9.43741369      11.54868909       1.80980610      -0.84760000
H        9.18278060      12.49673659       1.61910234       0.42380000
H        9.22167954      11.33062390       2.76159723       0.42380000
O       14.82500998       2.69062557       1.57743500      -0.84760000
H       14.83897913       3.67726799       1.41513407       0.42380000
H       15.40407807       2.47388722       2.36337688       0.42380000
O       12.29612695       2.85062957       0.75822895      -0.84760000
H       11.73087110       2.03611837       0.88883270       0.42380000
H       13.22130485       2.67143866       1.09279804       0.42380000
O        2.39443881       0.98383959       2.63479318      -0.84760000
H        2.40068913       1.66243778       3.36927628       0.42380000
H        1.44970062       0.77370655       2.38317073       0.42380000
O       11.11936935       2.21620731       5.07898763      -0.84760000
H       11.33687919       3.16162270       5.32163802       0.42380000
H       11.94506114       1.75821876       4.74962529       0.42380000
O       19.59314299       0.92684589       2.01419985      -0.84760000
H       18.80312660       0.61616837       2.54273895       0.42380000
H       19.44571273       1.87048658       1.71787814       0.42380000
O        3.67000637      18.70081906       3.05631845      -0.84760000
H        3.89945737      18.72920538       4.02922465       0.42380000
H        2.86425330      19.26840889       2.88719199       0.42380000
O        8.79198020       1.56756040       4.17750146      -0.84760000
H        8.11495617       2.30275338       4.14388992       0.42380000
H        9.67119823       1.93756656       4.47761994       0.42380000
O       16.98947500      19.08989663       1.19557823      -0.84760000
H       17.76259252      18.89938648       1.80055358       0.42380000
H       17.19204411      19.89604214       0.63961495       0.42380000
O        9.71175994       7.20692766       1.10707772      -0.84760000
H       10.19641116       6.61507401       0.46301060       0.42380000
H       10.18318576       8.08650962       1.17105639       0.42380000
O       17.47037009       6.60869361       2.30585277      -0.84760000
H       16.61471011       6.38283327       1.84019935       0.42380000
H       18.20838856       6.04121389       1.94075620       0.42380000
O       14.97077939      10.66263510       2.01934649      -0.84760000
H       14.02175582      10.84388107       1.76146250       0.42380000
H       15.02530074       9.78396444       2.49365156       0.42380000
O       17.86888469      19.66259843       3.95786248      -0.84760000
H       17.76969216      18.72313799       4.28584866       0.42380000
H       18.67672735       0.07805409       4.37593762       0.42380000
O       15.51186114       8.37611359       3.34222733      -0.84760000
H       16.27888003       8.07897342       2.77355367       0.42380000
H       15.02296498       7.57501800       3.68751910       0.42380000
O       18.91461635       4.17978305       3.93699550      -0.84760000
H       19.01128429       3.24280663       4.27274913       0.42380000
H       19.70980031       4.71778485       4.21670345       0.42380000
O       13.17751310       0.76139481       4.37351269      -0.84760000
H       13.48270150       0.14120369       5.09616269       0.42380000
H       13.67629271       0.56156544       3.53013429       0.42380000
O       11.75260063       7.29246636       3.53160300      -0.84760000
H       11.18737953       6.82668059       2.85074419       0.42380000
H       12.08913682       6.62650621       4.19736607       0.42380000
O       12.38680453       4.34109558       3.16925323      -0.84760000
H       12.39205160       4.10972114       2.19640260       0.42380000
H       11.88313221       3.64116079       3.67561819       0.42380000
O        6.71027781       6.61907164       2.56911265      -0.84760000
H        7.14159747       5.95238714       1.96125153       0.42380000
H        7.36474371       6.90381967       3.26953606       0.42380000
O        3.95104351       6.10254042       2.56454412      -0.84760000
H        4.79429528       6.36930179       3.03119692       0.42380000
H        4.00285486       6.37163909       1.60282613       0.42380000
O       19.78624924       7.82427125       3.59974039      -0.84760000
H        0.43247227       7.96521309       2.84971959       0.42380000
H       18.90203324       7.54026243       3.22892904       0.42380000
O        0.73114679      13.99160615       5.54891380      -0.84760000
H       19.93230161      14.46938602       5.91438986       0.42380000
H        0.43392887      13.30292622       4.88756558       0.42380000
O        7.09544305      18.36121523       0.30855526      -0.84760000
H        6.92316390      18.11256043       1.26170304       0.42380000
H        8.07886706      18.33346645       0.12937039       0.42380000
O        1.24759846       5.64533615       4.21027144      -0.84760000
H        0.66934198       6.43295552       3.99749180       0.42380000
H        2.19847940       5.86001541       3.98725070       0.42380000
O        7.97248804       2.25325776      19.78042726      -0.84760000
H        7.15694712       1.77923558      19.44846947       0.42380000
H        8.78238037       1.87977550      19.32811608       0.42380000
O        2.56117665      11.90955642       5.98044555      -0.84760000
H        2.13981311      12.71838323       5.57026028       0.42380000
H        1.92692488      11.13848374       5.92412849       0.42380000
O       14.60974839      14.97707894       3.72198391      -0.84760000
H       15.12407027      14.12200439       3.78771455       0.42380000
H       13.70551649      14.85443969       4.13103681       0.42380000
O       18.16726988      14.93229463       3.99203428      -0.84760000
H       19.06089297      15.26837305       3.69456318       0.42380000
H       17.72090678      14.45654697       3.23412653       0.42380000
O       14.72356084      19.92194591       2.24251454      -0.84760000
H       15.49261464      19.41168946       1.85755401       0.42380000
H       14.56444662       0.74579218       1.69849249       0.42380000
O        2.62166915       2.85417070       4.74531994      -0.84760000
H        2.08377904       3.69506471       4.68555795       0.42380000
H        3.54423831       3.02327914       4.39852249       0.42380000
O        7.50956910      19.23703451       5.16219560      -0.84760000
H        6.84857774      19.23090830       5.91256410       0.42380000
H        7.85531576       0.16602424       5.03014513       0.42380000
O       12.31214366       9.97587330       3.57037860      -0.84760000
H       12.62144213       9.02543968       3.53859181       0.42380000
H       11.49169912      10.04057474       4.13843184       0.42380000
O        4.88861157       3.60966072       3.30081488      -0.84760000
H        4.77613283       2.85426047       2.65527712       0.42380000
H        4.53379315       4.45142438       2.89395147       0.42380000
O        6.39705726      17.75253236       3.02511692      -0.84760000
H        6.93236454      18.14143675       3.77491656       0.42380000
H        5.46298802      18.10757810       3.06328974       0.42380000
O       11.07072245       5.12903403      19.15655866      -0.84760000
H       10.84837890       4.58382892      18.34827979       0.42380000
H       11.46144199       4.53658528      19.86107461       0.42380000
O       11.06054114       9.46407672       1.06307098      -0.84760000
H       10.42281463      10.23405602       1.08397046       0.42380000
H       11.62006834       9.47211741       1.89184396       0.42380000
O       18.16323784      17.19209989       5.65073181      -0.84760000
H       17.21294436      17.04788543       5.37478890       0.42380000
H       18.49384246      16.38592467       6.14142735       0.42380000
O       17.89143863      14.21011249       0.99897415      -0.84760000
H       17.60342121      14.83039371       0.26938716       0.42380000
H       18.83353417      13.91750758       0.83514995       0.42380000
O       19.48392710       1.92368448       5.33728985      -0.84760000
H       19.86503240       2.64302614       5.91807064       0.42380000
H        0.05869757       1.10755565       5.39706137       0.42380000
O        5.32490079      11.46662225       5.21393700      -0.84760000
H        4.40346265      11.57735422       5.58634831       0.42380000
H        5.90038832      12.22621943       5.51696544       0.42380000
O       14.56889548       5.67452524       3.64673422      -0.84760000
H       13.77859164       5.07316959       3.52929819       0.42380000
H       15.28019333       5.19385352       4.15957929       0.42380000
O       10.68772770      12.22675625       5.80468312      -0.84760000
H       10.22383727      12.35885218       6.68067190       0.42380000
H       10.32450603      11.41082592       5.35487459       0.42380000
O        7.20192582      13.24794828       5.88802342      -0.84760000
H        7.39818468      14.08654446       5.37985129       0.42380000
H        7.85122188      13.15601578       6.64298239       0.42380000
O        9.03256900      12.75718396       8.17559125      -0.84760000
H        9.58590659      13.57151634       8.35074912       0.42380000
H        8.30857379      12.69211772       8.86232070       0.42380000
O        9.87520840      18.04060434       0.64625936      -0.84760000
H       10.56402486      17.39771448       0.98125864       0.42380000
H        9.82590772      18.82706072       1.26193443       0.42380000
O       16.57990826      12.60836566       2.80989497      -0.84760000
H       16.79945123      13.15566269       2.00226458       0.42380000
H       15.80931138      12.00510774       2.60432179       0.42380000
O       13.98753652      17.08917232       2.00655178      -0.84760000
H       14.29398027      16.45938955       2.72032057       0.42380000
H       14.28239513      18.01767908       2.23223652       0.42380000
O       11.75403064      15.48222019       1.29229526      -0.84760000
H       12.38747894      16.14270285       1.69541548       0.42380000
H       12.07497453      14.55423067       1.48158464       0.42380000
O       12.34624101      14.72774282       5.47035761      -0.84760000
H       11.73902492      15.43869282       5.82509514       0.42380000
H       11.81303528      13.90817799       5.26058356       0.42380000
O        8.32374404       6.29862724       5.08987803      -0.84760000
H        9.14188364       6.39714982       5.65639447       0.42380000
H        8.11337306       5.32787912       4.97415358       0.42380000
O        7.57357438       3.86881932       3.78081870      -0.84760000
H        7.92837296       3.96084966       2.85041643       0.42380000
H        6.57445690       3.83584432       3.75480101       0.42380000
O       14.59348423      14.20888594       7.13305592      -0.84760000
H       13.82778314      14.69052842       6.70676686       0.42380000
H       14.29093672      13.30590034       7.43814935       0.42380000
O       10.07581629      16.77332836       5.77674656      -0.84760000
H       10.12750891      17.72554198       5.47571980       0.42380000
H        9.36819190      16.29677701       5.25505074       0.42380000
O        5.73306937       0.77692151      19.04165899      -0.84760000
H        4.99014036       0.57654867      18.40298286       0.42380000
H        6.10282852      19.92055428      19.40209392       0.42380000
O       13.41871709      11.70689716       7.44489645      -0.84760000
H       12.70978150      12.13085378       6.88127324       0.42380000
H       13.90900031      11.02272928       6.90495509       0.42380000
O       13.73779330      18.70437063       6.19322431      -0.84760000
H       12.97781677      18.10451004       6.44343011       0.42380000
H       14.54058088      18.15067071       5.97198126       0.42380000
O       15.53390871      16.49357532       5.83517682      -0.84760000
H       15.68616602      15.88402806       6.61316772       0.42380000
H       15.34082111      15.94977616       5.01847635       0.42380000
O        1.47136376       8.54396865       1.42373557      -0.84760000
H        1.76285512       9.48808551       1.57760610       0.42380000
H        2.06233977       8.12035162       0.73722557       0.42380000
O        5.00565404      16.74029492       5.35539863      -0.84760000
H        4.14413306      16.30582462       5.61810982       0.42380000
H        5.58815098      16.07234558       4.89221293       0.42380000
O        9.82487862       9.83820312       4.74760506      -0.84760000
H       10.06911986       8.88007061       4.59817840       0.42380000
H        8.94494683       9.88808917       5.22007878       0.42380000
O       14.31884399      10.06754701       5.48918298      -0.84760000
H       15.17717005       9.57970340       5.33017044       0.42380000
H       13.88337666      10.27047988       4.61215023       0.42380000
O        1.37989239       9.74392441       5.03629787      -0.84760000
H        2.23488805       9.22580719       5.05947048       0.42380000
H        0.62924168       9.13685677       4.77554436       0.42380000
O        7.76388386      15.62743760       4.45056906      -0.84760000
H        8.35881138      15.25486315       3.73835453       0.42380000
H        7.20129973      16.35919773       4.06582732       0.42380000
O        0.35570584      18.14240496       1.97105925      -0.84760000
H        0.11309455      19.04560336       1.61697959       0.42380000
H        1.25798456      17.88124437       1.62800203       0.42380000
O        2.81892850      15.39026243       6.58626332      -0.84760000
H        2.21541328      14.70187072       6.18391244       0.42380000
H        2.62035963      15.47799876       7.56241533       0.42380000
O        3.14563848       7.33966109      19.69419304      -0.84760000
H        4.07386694       7.71100254      19.71649640       0.42380000
H        2.99278060       6.87659839      18.82114814       0.42380000
O        7.47571588       9.98171487       5.73353938      -0.84760000
H        6.77013109      10.60652422       5.39922907       0.42380000
H        7.09116283       9.06320787       5.82553854       0.42380000
O       10.41807679       7.22634002       6.83990788      -0.84760000
H       11.03730636       8.00699615       6.75546416       0.42380000
H        9.60916483       7.49744851       7.36159900       0.42380000
O       16.61102833       4.61738477       5.05848108      -0.84760000
H       16.82431342       4.45487510       6.02186059       0.42380000
H       17.46104911       4.70942288       4.53983508       0.42380000
O       12.34509661       9.03434309       6.91772789      -0.84760000
H       13.01449081       9.25864388       6.20949025       0.42380000
H       12.52787541       9.58166844       7.73444503       0.42380000
O        3.96674354       8.57442685       5.04816357      -0.84760000
H        4.44322310       9.45296431       5.08191515       0.42380000
H        4.62872248       7.83203961       5.15133852       0.42380000
O        5.64289620       6.57492042       5.55660111      -0.84760000
H        6.50633467       6.67534997       5.06224503       0.42380000
H        5.72663229       5.83801098       6.22738627       0.42380000
O        2.88667853      15.87705926       3.46920284      -0.84760000
H        2.00380606      15.95917767       3.93158015       0.42380000
H        3.35550709      16.76017546       3.48668312       0.42380000
O        0.46781027      16.68533748       4.11033241      -0.84760000
H       19.67026530      16.80716559       4.70116228       0.42380000
H        0.37194709      17.26078213       3.29812942       0.42380000
O        5.54618148      19.01733684       7.35006832      -0.84760000
H        5.44654196      18.21257224       6.76489663       0.42380000
H        5.21497018      18.80416624       8.26922955       0.42380000
O       16.50522990       2.09886959       3.60198483      -0.84760000
H       16.84693942       2.76245610       4.26748279       0.42380000
H       16.71238258       1.17300031       3.91798140       0.42380000
O        9.25191188      14.52924065       2.15232869      -0.84760000
H        8.52857832      14.47497652       1.46396545       0.42380000
H       10.10011773      14.83666561       1.72100894       0.42380000
O        3.52122169      19.89401623       5.57692848      -0.84760000
H        3.11282932       0.77580864       5.81284754       0.42380000
H        4.16943902      19.62559020       6.28950252       0.42380000
O       10.45629939      15.30350146       8.29571083      -0.84760000
H       11.40313741      15.39276797       8.60478890       0.42380000
H       10.26342491      16.00187547       7.60645531       0.42380000
O       19.75013140      12.40053811       3.65281228      -0.84760000
H        0.31501793      11.86494250       3.02508580       0.42380000
H       18.80196821      12.39523975       3.33507263       0.42380000
O       10.40404415      19.33559399       5.35021321      -0.84760000
H        9.47502861      19.70542726       5.33782440       0.42380000
H       11.06155521       0.08757277       5.39719338       0.42380000
O        0.07012940      19.24789833       6.04166023      -0.84760000
H       19.37128003      18.55527373       5.86310850       0.42380000
H        0.97191198      18.81590270       6.05461929       0.42380000
O        4.78617441      13.46680078       3.16305212      -0.84760000
H        4.18986520      14.23553868       3.39426060       0.42380000
H        4.80248658      12.81724648       3.92319233       0.42380000
O        6.53207015      14.36921242       1.19313341      -0.84760000
H        5.93461800      15.00754846       0.70776960       0.42380000
H        5.98291151      13.79415696       1.79954582       0.42380000
O        9.82878464       1.40687107       1.64423989      -0.84760000
H        9.16761181       1.79567642       1.00261625       0.42380000
H        9.43398130       1.39426788       2.56291909       0.42380000
O       18.32083267       3.49266727       1.45890589      -0.84760000
H       18.47448018       3.71056389       2.42270748       0.42380000
H       17.34668208       3.57694788       1.24931723       0.42380000
O       15.18899380       5.35811864       1.02624958      -0.84760000
H       14.68126227       5.96565002       0.41541874       0.42380000
H       14.87085486       5.48783374       1.96537769       0.42380000
O        2.01390595      11.03234044       2.74047830      -0.84760000
H        2.79333155      11.65639955       2.79566857       0.42380000
H        1.92269681      10.53581126       3.60369302       0.42380000
O       11.46559124       4.65130861       6.38326940      -0.84760000
H       12.04722948       4.48239729       7.17898663       0.42380000
H       10.90005786       5.45915811       6.54925489       0.42380000
O       19.94130243       4.18280264       6.85094804      -0.84760000
H       19.83064167       3.87574180       7.79618231       0.42380000
H        0.45958634       5.03789385       6.83677745       0.42380000
O       19.35423234       2.66614820       9.18503279      -0.84760000
H       18.96511119       1.79287401       8.89181462       0.42380000
H       19.21254483       2.78082118      10.16827984       0.42380000
O       18.55983032       0.45913669       7.99860224      -0.84760000
H       19.24908069       0.18243182       7.32899912       0.42380000
H       17.64728513       0.27819566       7.63183034       0.42380000
O       13.46861756       6.99677778      19.73481834      -0.84760000
H       13.45595900       7.99630416      19.76286780       0.42380000
H       12.63132409       6.66489603      19.30031386       0.42380000
O       16.31650913      19.37153807       7.05526478      -0.84760000
H       15.34709959      19.58606919       6.93601067       0.42380000
H       16.41554617      18.41209633       7.31920267       0.42380000
O       18.14384556      14.94944457       7.47357065      -0.84760000
H       17.66300150      15.11673653       8.33426943       0.42380000
H       17.85062974      14.07242424       7.09296609       0.42380000
O        9.92108326       0.18478844      18.68243389      -0.84760000
H       10.56221048      19.70785214      18.08119546       0.42380000
H        9.65957939      19.58191152      19.43619456       0.42380000
O       16.57574853      16.34432126      19.48936722      -0.84760000
H       15.59399551      16.18260123      19.58940547       0.42380000
H       16.80664943      17.23948815      19.87062961       0.42380000
600
Lattice="20.0 0.0 0.0 0.0 20.0 0.0 0.0 0.0 20.0" Properties=species:S:1:pos:R:3:initial_charges:R:1 "real energy"=-102.80044225783274 "recip energy"=0.5200515771858901 "self energy"=-490.27266873956864 pbc="T T T"
O       19.52637185      10.72064004       8.25707585      -0.84760000
H       18.55009858      10.92338777       8.33312751       0.42380000
H       19.99013007      10.99359003       9.09994394       0.42380000
O       18.34083328       4.88347492       0.86244718      -0.84760000
H       17.45870709       4.82953265       1.33036129       0.42380000
H       18.50195515       4.03627551       0.35619339       0.42380000
O       16.59820309       9.35557141       4.32348656      -0.84760000
H       16.11123324      10.15253594       3.96612412       0.42380000
H       16.09923675       8.98339641       5.10612208       0.42380000
O        0.43199731      10.00177210       5.63772600      -0.84760000
H        1.42850972       9.99094573       5.55498667       0.42380000
H        0.17799000      10.23473279       6.57645366       0.42380000
O        4.45427819      16.01829141      14.33072536      -0.84760000
H        3.84389759      15.53762366      13.70112704       0.42380000
H        5.31738378      15.51872488      14.40476601       0.42380000
O        2.74159184       7.06192936       1.93362363      -0.84760000
H        1.75845593       6.88857903       1.99187703       0.42380000
H        3.23498792       6.19229786       1.95098325       0.42380000
O        4.03810822      13.10322727      11.43006503      -0.84760000
H        4.37430816      12.17878594      11.61000344       0.42380000
H        3.62759765      13.13712357      10.51883942       0.42380000
O       14.36855764      10.81738278      19.06746112      -0.84760000
H       13.90426610      11.21832116      19.85719638       0.42380000
H       13.72428999      10.73835639      18.30675486       0.42380000
O       15.50575496      11.88978133       3.44090989      -0.84760000
H       15.57331421      12.58504148       4.15648593       0.42380000
H       16.16115814      12.09483799       2.71399970       0.42380000
O       17.47551643       7.08242560      19.26049602      -0.84760000
H       17.51310929       7.62933326       0.09684450       0.42380000
H       17.92900633       6.20474851      19.41551165       0.42380000
O        2.29392504      14.44039691      12.93468092      -0.84760000
H        2.99367947      13.95402520      12.41143500       0.42380000
H        1.38731439      14.16845432      12.61202883       0.42380000
O       17.30229886       2.41768598      19.88079556      -0.84760000
H       16.64416587       2.62979352      19.15838891       0.42380000
H       17.80647823       1.58850804      19.63940974       0.42380000
O        1.82761982      16.65699422      10.93609547      -0.84760000
H        2.05641393      17.60134915      11.17241519       0.42380000
H        2.06509338      16.05560766      11.69894573       0.42380000
O       19.09947756      15.79434095      10.78436176      -0.84760000
H        0.02771955      16.13890907      10.64422033       0.42380000
H       19.14071486      14.87624022      11.17855782       0.42380000
O       19.86210045      13.95117381       1.62352886      -0.84760000
H       19.65367979      14.48187115       2.44506471       0.42380000
H        0.72760297      13.46660460       1.75040701       0.42380000
O       19.70996011      13.48060391      11.85348768      -0.84760000
H        0.13042160      12.85827427      11.19324686       0.42380000
H       18.96804497      13.00914580      12.33023624       0.42380000
O        0.88551136       2.55335176      18.84914457      -0.84760000
H        1.48822765       2.87368467      19.57997964       0.42380000
H        0.23188862       1.89419961      19.22102594       0.42380000
O       18.25260154       9.12970872       0.87694723      -0.84760000
H       18.21981272       9.93391172       1.47039683       0.42380000
H       18.64649537       8.36026898       1.37974951       0.42380000
O       18.99709467       0.42791574      19.18189192      -0.84760000
H       18.96794733      19.94383208      18.30735580       0.42380000
H       19.65831374      19.98404712      19.78668114       0.42380000
O        0.20517530       7.41554903       5.25113823      -0.84760000
H        0.04685268       8.40109332       5.31144079       0.42380000
H        0.47589474       7.06595559       6.14807491       0.42380000
O       14.72110074       8.05149516      18.68268195      -0.84760000
H       15.65350945       7.70530798      18.78645302       0.42380000
H       14.68152967       9.00101339      18.99388807       0.42380000
O       13.41897908      11.27160408       1.60365427      -0.84760000
H       12.53775490      11.24660442       2.07569130       0.42380000
H       14.14366625      11.47729596       2.26131632       0.42380000
O        0.97247187      11.33051511      10.43607732      -0.84760000
H        1.45449111      10.46716364      10.58534789       0.42380000
H        1.52904566      11.92741336       9.85820355       0.42380000
O       16.55364768       2.54024962       3.05136502      -0.84760000
H       17.02909790       2.14103065       2.26741904       0.42380000
H       16.46942280       3.52830231       2.92229891       0.42380000
O        1.49170847       8.74452157      12.25512092      -0.84760000
H        2.00986722       8.19075010      12.90692507       0.42380000
H        0.97981557       9.44791076      12.74828348       0.42380000
O        0.01154162      15.10023324      18.96329236      -0.84760000
H        0.92570656      15.45424671      18.76586664       0.42380000
H       19.89673498      15.00670006      19.95226707       0.42380000
O       15.74102354       2.98982535      17.46628613      -0.84760000
H       15.89056829       2.58177906      16.56565603       0.42380000
H       15.76042808       3.98656784      17.38800540       0.42380000
O       18.95303013      13.02372666      17.36361572      -0.84760000
H       18.40813431      12.33821590      17.84648584       0.42380000
H       19.23373762      13.73823355      18.00446142       0.42380000
O        0.82981649       6.65483722       7.94044223      -0.84760000
H        0.17785739       6.15512780       8.51074025       0.42380000
H        1.24106794       7.39401693       8.47381415       0.42380000
O       13.33676487       7.22668861      16.40683305      -0.84760000
H       13.55308685       7.75163778      17.23001783       0.42380000
H       13.81234736       6.34755490      16.43757745       0.42380000
O       11.07878835       7.67690825      14.42289164      -0.84760000
H       11.79071134       7.41990067      15.07643028       0.42380000
H       11.34741401       8.51627434      13.95034025       0.42380000
O       15.70797420       7.15915593      11.68211169      -0.84760000
H       16.34931711       6.42141270      11.47136492       0.42380000
H       15.10806415       7.31368388      10.89710912       0.42380000
O       18.82874952      14.29659806       4.03603967      -0.84760000
H       17.90098526      14.66199601       3.96029133       0.42380000
H       18.79097244      13.36157823       4.38861706       0.42380000
O       18.03167857       7.32328563       3.64626716      -0.84760000
H       18.72772808       7.28508155       4.36324381       0.42380000
H       17.39461025       8.06945009       3.83961288       0.42380000
O        7.18200828       6.14516121       1.86504370      -0.84760000
H        7.15083809       6.59080041       0.97037386       0.42380000
H        6.48479873       6.54414086       2.46062248       0.42380000
O        4.13814560       8.99463945       3.35870378      -0.84760000
H        4.73299546       9.56450427       2.79177545       0.42380000
H        3.57631792       8.41198063       2.77145736       0.42380000
O        9.49612930       7.03385611       3.02827396      -0.84760000
H        8.63468019       6.94904538       2.52756189       0.42380000
H       10.22274528       7.30653857       2.39766036       0.42380000
O       19.52693419      18.97321652      16.82613324      -0.84760000
H       19.38995611      19.25251083      15.87574822       0.42380000
H       19.00815977      18.13744174      17.00600437       0.42380000
O        3.73327071       7.31584956      19.21483753      -0.84760000
H        3.21328530       6.64196621      18.68996002       0.42380000